
Host: bigroo

Timers On : Thu Aug 22 13:11:59 2019
Timers Off: Thu Aug 22 13:12:40 2019

Wall Time:       40.37 seconds

                                                       Time (seconds)
Module                                       User      System        Wall        Calls

--------------------------------------------------------------------------------------

**************************************************************************************

Host: bigroo

Timers On : Thu Aug 22 13:14:47 2019
Timers Off: Thu Aug 22 13:14:56 2019

Wall Time:        9.30 seconds

                                                       Time (seconds)
Module                                       User      System        Wall        Calls
Total PK formation time             :      0.317u      0.000s      0.193w      5 calls
HF: Form core H                     :      0.000u      0.000s      0.005w      5 calls
HF: Form S/X                        :      0.000u      0.000s      0.001w      5 calls
HF: Guess                           :      0.850u      0.000s      0.509w      5 calls
SAD Guess                           :      0.733u      0.000s      0.443w      5 calls
HF: Form G                          :      0.000u      0.000s      0.001w     20 calls
JK: D                               :      0.000u      0.000s      0.000w     20 calls
JK: USO2AO                          :      0.000u      0.000s      0.000w     20 calls
JK: JK                              :      0.000u      0.000s      0.000w     20 calls
PK computes JK                      :      0.000u      0.000s      0.000w     20 calls
JK: AO2USO                          :      0.000u      0.000s      0.000w     20 calls
HF: Form F                          :      0.000u      0.000s      0.000w     20 calls
HF: Form D                          :      0.000u      0.000s      0.000w     20 calls
HF: DIIS                            :      0.017u      0.000s      0.010w     15 calls
DIISManager::add_entry              :      0.000u      0.000s      0.001w     15 calls
DIISManager::extrapolate            :      0.000u      0.000s      0.001w     15 calls
bMatrix setup                       :      0.000u      0.000s      0.000w     15 calls
bMatrix pseudoinverse               :      0.000u      0.000s      0.000w     15 calls
New vector                          :      0.000u      0.000s      0.000w     15 calls
HF: Form C                          :      0.000u      0.000s      0.000w     15 calls

--------------------------------------------------------------------------------------
Total PK formation time             :      0.317u      0.000s      0.193w      5 calls
HF: Form core H                     :      0.000u      0.000s      0.005w      5 calls
HF: Form S/X                        :      0.000u      0.000s      0.001w      5 calls
HF: Guess                           :      0.850u      0.000s      0.509w      5 calls
| SAD Guess                         :      0.733u      0.000s      0.443w      5 calls
HF: Form G                          :      0.000u      0.000s      0.001w     20 calls
| JK: D                             :      0.000u      0.000s      0.000w     20 calls
| JK: USO2AO                        :      0.000u      0.000s      0.000w     20 calls
| JK: JK                            :      0.000u      0.000s      0.000w     20 calls
| | PK computes JK                  :      0.000u      0.000s      0.000w     20 calls
| JK: AO2USO                        :      0.000u      0.000s      0.000w     20 calls
HF: Form F                          :      0.000u      0.000s      0.000w     20 calls
HF: Form D                          :      0.000u      0.000s      0.000w     20 calls
HF: DIIS                            :      0.017u      0.000s      0.010w     15 calls
| DIISManager::add_entry            :      0.000u      0.000s      0.001w     15 calls
| DIISManager::extrapolate          :      0.000u      0.000s      0.001w     15 calls
| | bMatrix setup                   :      0.000u      0.000s      0.000w     15 calls
| | bMatrix pseudoinverse           :      0.000u      0.000s      0.000w     15 calls
| | New vector                      :      0.000u      0.000s      0.000w     15 calls
HF: Form C                          :      0.000u      0.000s      0.000w     15 calls

**************************************************************************************

Host: bigroo

Timers On : Thu Aug 22 13:22:05 2019
Timers Off: Thu Aug 22 13:22:08 2019

Wall Time:        2.57 seconds

                                                       Time (seconds)
Module                                       User      System        Wall        Calls
Total PK formation time             :      0.317u      0.000s      0.188w      5 calls
HF: Form core H                     :      0.000u      0.000s      0.007w      5 calls
HF: Form S/X                        :      0.000u      0.000s      0.001w      5 calls
HF: Guess                           :      0.867u      0.017s      0.521w      5 calls
SAD Guess                           :      0.733u      0.000s      0.438w      5 calls
HF: Form G                          :      0.000u      0.000s      0.001w     20 calls
JK: D                               :      0.000u      0.000s      0.000w     20 calls
JK: USO2AO                          :      0.000u      0.000s      0.000w     20 calls
JK: JK                              :      0.000u      0.000s      0.000w     20 calls
PK computes JK                      :      0.000u      0.000s      0.000w     20 calls
JK: AO2USO                          :      0.000u      0.000s      0.000w     20 calls
HF: Form F                          :      0.000u      0.000s      0.000w     20 calls
HF: Form D                          :      0.000u      0.000s      0.000w     20 calls
HF: DIIS                            :      0.017u      0.000s      0.009w     15 calls
DIISManager::add_entry              :      0.000u      0.000s      0.001w     15 calls
DIISManager::extrapolate            :      0.000u      0.000s      0.001w     15 calls
bMatrix setup                       :      0.000u      0.000s      0.000w     15 calls
bMatrix pseudoinverse               :      0.000u      0.000s      0.000w     15 calls
New vector                          :      0.000u      0.000s      0.000w     15 calls
HF: Form C                          :      0.000u      0.000s      0.000w     15 calls

--------------------------------------------------------------------------------------
Total PK formation time             :      0.317u      0.000s      0.188w      5 calls
HF: Form core H                     :      0.000u      0.000s      0.007w      5 calls
HF: Form S/X                        :      0.000u      0.000s      0.001w      5 calls
HF: Guess                           :      0.867u      0.017s      0.521w      5 calls
| SAD Guess                         :      0.733u      0.000s      0.438w      5 calls
HF: Form G                          :      0.000u      0.000s      0.001w     20 calls
| JK: D                             :      0.000u      0.000s      0.000w     20 calls
| JK: USO2AO                        :      0.000u      0.000s      0.000w     20 calls
| JK: JK                            :      0.000u      0.000s      0.000w     20 calls
| | PK computes JK                  :      0.000u      0.000s      0.000w     20 calls
| JK: AO2USO                        :      0.000u      0.000s      0.000w     20 calls
HF: Form F                          :      0.000u      0.000s      0.000w     20 calls
HF: Form D                          :      0.000u      0.000s      0.000w     20 calls
HF: DIIS                            :      0.017u      0.000s      0.009w     15 calls
| DIISManager::add_entry            :      0.000u      0.000s      0.001w     15 calls
| DIISManager::extrapolate          :      0.000u      0.000s      0.001w     15 calls
| | bMatrix setup                   :      0.000u      0.000s      0.000w     15 calls
| | bMatrix pseudoinverse           :      0.000u      0.000s      0.000w     15 calls
| | New vector                      :      0.000u      0.000s      0.000w     15 calls
HF: Form C                          :      0.000u      0.000s      0.000w     15 calls

**************************************************************************************

Host: bigroo

Timers On : Thu Aug 22 13:23:39 2019
Timers Off: Thu Aug 22 13:23:42 2019

Wall Time:        2.72 seconds

                                                       Time (seconds)
Module                                       User      System        Wall        Calls
Total PK formation time             :      0.383u      0.000s      0.210w      5 calls
HF: Form core H                     :      0.000u      0.000s      0.006w      5 calls
HF: Form S/X                        :      0.000u      0.000s      0.001w      5 calls
HF: Guess                           :      0.833u      0.017s      0.514w      5 calls
SAD Guess                           :      0.750u      0.000s      0.447w      5 calls
HF: Form G                          :      0.017u      0.000s      0.001w     20 calls
JK: D                               :      0.000u      0.000s      0.000w     20 calls
JK: USO2AO                          :      0.000u      0.000s      0.000w     20 calls
JK: JK                              :      0.017u      0.000s      0.000w     20 calls
PK computes JK                      :      0.017u      0.000s      0.000w     20 calls
JK: AO2USO                          :      0.000u      0.000s      0.000w     20 calls
HF: Form F                          :      0.000u      0.000s      0.000w     20 calls
HF: Form D                          :      0.000u      0.000s      0.000w     20 calls
HF: DIIS                            :      0.017u      0.000s      0.010w     15 calls
DIISManager::add_entry              :      0.000u      0.000s      0.001w     15 calls
DIISManager::extrapolate            :      0.017u      0.000s      0.001w     15 calls
bMatrix setup                       :      0.017u      0.000s      0.000w     15 calls
bMatrix pseudoinverse               :      0.000u      0.000s      0.000w     15 calls
New vector                          :      0.000u      0.000s      0.000w     15 calls
HF: Form C                          :      0.000u      0.000s      0.000w     15 calls

--------------------------------------------------------------------------------------
Total PK formation time             :      0.383u      0.000s      0.210w      5 calls
HF: Form core H                     :      0.000u      0.000s      0.006w      5 calls
HF: Form S/X                        :      0.000u      0.000s      0.001w      5 calls
HF: Guess                           :      0.833u      0.017s      0.514w      5 calls
| SAD Guess                         :      0.750u      0.000s      0.447w      5 calls
HF: Form G                          :      0.017u      0.000s      0.001w     20 calls
| JK: D                             :      0.000u      0.000s      0.000w     20 calls
| JK: USO2AO                        :      0.000u      0.000s      0.000w     20 calls
| JK: JK                            :      0.017u      0.000s      0.000w     20 calls
| | PK computes JK                  :      0.017u      0.000s      0.000w     20 calls
| JK: AO2USO                        :      0.000u      0.000s      0.000w     20 calls
HF: Form F                          :      0.000u      0.000s      0.000w     20 calls
HF: Form D                          :      0.000u      0.000s      0.000w     20 calls
HF: DIIS                            :      0.017u      0.000s      0.010w     15 calls
| DIISManager::add_entry            :      0.000u      0.000s      0.001w     15 calls
| DIISManager::extrapolate          :      0.017u      0.000s      0.001w     15 calls
| | bMatrix setup                   :      0.017u      0.000s      0.000w     15 calls
| | bMatrix pseudoinverse           :      0.000u      0.000s      0.000w     15 calls
| | New vector                      :      0.000u      0.000s      0.000w     15 calls
HF: Form C                          :      0.000u      0.000s      0.000w     15 calls

**************************************************************************************

Host: bigroo

Timers On : Thu Aug 22 13:24:22 2019
Timers Off: Thu Aug 22 13:24:25 2019

Wall Time:        2.70 seconds

                                                       Time (seconds)
Module                                       User      System        Wall        Calls
Total PK formation time             :      0.383u      0.000s      0.223w      5 calls
HF: Form core H                     :      0.000u      0.000s      0.006w      5 calls
HF: Form S/X                        :      0.000u      0.000s      0.001w      5 calls
HF: Guess                           :      0.883u      0.000s      0.524w      5 calls
SAD Guess                           :      0.733u      0.000s      0.443w      5 calls
HF: Form G                          :      0.000u      0.000s      0.001w     20 calls
JK: D                               :      0.000u      0.000s      0.000w     20 calls
JK: USO2AO                          :      0.000u      0.000s      0.000w     20 calls
JK: JK                              :      0.000u      0.000s      0.000w     20 calls
PK computes JK                      :      0.000u      0.000s      0.000w     20 calls
JK: AO2USO                          :      0.000u      0.000s      0.000w     20 calls
HF: Form F                          :      0.000u      0.000s      0.000w     20 calls
HF: Form D                          :      0.000u      0.000s      0.000w     20 calls
HF: DIIS                            :      0.033u      0.000s      0.009w     15 calls
DIISManager::add_entry              :      0.017u      0.000s      0.001w     15 calls
DIISManager::extrapolate            :      0.000u      0.000s      0.001w     15 calls
bMatrix setup                       :      0.000u      0.000s      0.000w     15 calls
bMatrix pseudoinverse               :      0.000u      0.000s      0.000w     15 calls
New vector                          :      0.000u      0.000s      0.000w     15 calls
HF: Form C                          :      0.000u      0.000s      0.000w     15 calls

--------------------------------------------------------------------------------------
Total PK formation time             :      0.383u      0.000s      0.223w      5 calls
HF: Form core H                     :      0.000u      0.000s      0.006w      5 calls
HF: Form S/X                        :      0.000u      0.000s      0.001w      5 calls
HF: Guess                           :      0.883u      0.000s      0.524w      5 calls
| SAD Guess                         :      0.733u      0.000s      0.443w      5 calls
HF: Form G                          :      0.000u      0.000s      0.001w     20 calls
| JK: D                             :      0.000u      0.000s      0.000w     20 calls
| JK: USO2AO                        :      0.000u      0.000s      0.000w     20 calls
| JK: JK                            :      0.000u      0.000s      0.000w     20 calls
| | PK computes JK                  :      0.000u      0.000s      0.000w     20 calls
| JK: AO2USO                        :      0.000u      0.000s      0.000w     20 calls
HF: Form F                          :      0.000u      0.000s      0.000w     20 calls
HF: Form D                          :      0.000u      0.000s      0.000w     20 calls
HF: DIIS                            :      0.033u      0.000s      0.009w     15 calls
| DIISManager::add_entry            :      0.017u      0.000s      0.001w     15 calls
| DIISManager::extrapolate          :      0.000u      0.000s      0.001w     15 calls
| | bMatrix setup                   :      0.000u      0.000s      0.000w     15 calls
| | bMatrix pseudoinverse           :      0.000u      0.000s      0.000w     15 calls
| | New vector                      :      0.000u      0.000s      0.000w     15 calls
HF: Form C                          :      0.000u      0.000s      0.000w     15 calls

**************************************************************************************

Host: bigroo

Timers On : Thu Aug 22 13:24:47 2019
Timers Off: Thu Aug 22 13:24:50 2019

Wall Time:        2.64 seconds

                                                       Time (seconds)
Module                                       User      System        Wall        Calls
Total PK formation time             :      0.317u      0.000s      0.199w      5 calls
HF: Form core H                     :      0.000u      0.000s      0.006w      5 calls
HF: Form S/X                        :      0.000u      0.000s      0.001w      5 calls
HF: Guess                           :      0.867u      0.000s      0.523w      5 calls
SAD Guess                           :      0.750u      0.000s      0.441w      5 calls
HF: Form G                          :      0.000u      0.000s      0.001w     20 calls
JK: D                               :      0.000u      0.000s      0.000w     20 calls
JK: USO2AO                          :      0.000u      0.000s      0.000w     20 calls
JK: JK                              :      0.000u      0.000s      0.000w     20 calls
PK computes JK                      :      0.000u      0.000s      0.000w     20 calls
JK: AO2USO                          :      0.000u      0.000s      0.000w     20 calls
HF: Form F                          :      0.000u      0.000s      0.000w     20 calls
HF: Form D                          :      0.000u      0.000s      0.000w     20 calls
HF: DIIS                            :      0.033u      0.000s      0.009w     15 calls
DIISManager::add_entry              :      0.000u      0.000s      0.001w     15 calls
DIISManager::extrapolate            :      0.000u      0.000s      0.001w     15 calls
bMatrix setup                       :      0.000u      0.000s      0.000w     15 calls
bMatrix pseudoinverse               :      0.000u      0.000s      0.000w     15 calls
New vector                          :      0.000u      0.000s      0.000w     15 calls
HF: Form C                          :      0.000u      0.000s      0.000w     15 calls

--------------------------------------------------------------------------------------
Total PK formation time             :      0.317u      0.000s      0.199w      5 calls
HF: Form core H                     :      0.000u      0.000s      0.006w      5 calls
HF: Form S/X                        :      0.000u      0.000s      0.001w      5 calls
HF: Guess                           :      0.867u      0.000s      0.523w      5 calls
| SAD Guess                         :      0.750u      0.000s      0.441w      5 calls
HF: Form G                          :      0.000u      0.000s      0.001w     20 calls
| JK: D                             :      0.000u      0.000s      0.000w     20 calls
| JK: USO2AO                        :      0.000u      0.000s      0.000w     20 calls
| JK: JK                            :      0.000u      0.000s      0.000w     20 calls
| | PK computes JK                  :      0.000u      0.000s      0.000w     20 calls
| JK: AO2USO                        :      0.000u      0.000s      0.000w     20 calls
HF: Form F                          :      0.000u      0.000s      0.000w     20 calls
HF: Form D                          :      0.000u      0.000s      0.000w     20 calls
HF: DIIS                            :      0.033u      0.000s      0.009w     15 calls
| DIISManager::add_entry            :      0.000u      0.000s      0.001w     15 calls
| DIISManager::extrapolate          :      0.000u      0.000s      0.001w     15 calls
| | bMatrix setup                   :      0.000u      0.000s      0.000w     15 calls
| | bMatrix pseudoinverse           :      0.000u      0.000s      0.000w     15 calls
| | New vector                      :      0.000u      0.000s      0.000w     15 calls
HF: Form C                          :      0.000u      0.000s      0.000w     15 calls

**************************************************************************************

Host: bigroo

Timers On : Thu Aug 22 13:25:04 2019
Timers Off: Thu Aug 22 13:25:06 2019

Wall Time:        2.62 seconds

                                                       Time (seconds)
Module                                       User      System        Wall        Calls
Total PK formation time             :      0.350u      0.000s      0.204w      5 calls
HF: Form core H                     :      0.000u      0.000s      0.007w      5 calls
HF: Form S/X                        :      0.000u      0.000s      0.001w      5 calls
HF: Guess                           :      0.833u      0.000s      0.517w      5 calls
SAD Guess                           :      0.700u      0.000s      0.437w      5 calls
HF: Form G                          :      0.000u      0.000s      0.001w     20 calls
JK: D                               :      0.000u      0.000s      0.000w     20 calls
JK: USO2AO                          :      0.000u      0.000s      0.000w     20 calls
JK: JK                              :      0.000u      0.000s      0.000w     20 calls
PK computes JK                      :      0.000u      0.000s      0.000w     20 calls
JK: AO2USO                          :      0.000u      0.000s      0.000w     20 calls
HF: Form F                          :      0.000u      0.000s      0.000w     20 calls
HF: Form D                          :      0.017u      0.000s      0.000w     20 calls
HF: DIIS                            :      0.017u      0.000s      0.009w     15 calls
DIISManager::add_entry              :      0.000u      0.000s      0.001w     15 calls
DIISManager::extrapolate            :      0.000u      0.000s      0.001w     15 calls
bMatrix setup                       :      0.000u      0.000s      0.000w     15 calls
bMatrix pseudoinverse               :      0.000u      0.000s      0.000w     15 calls
New vector                          :      0.000u      0.000s      0.000w     15 calls
HF: Form C                          :      0.000u      0.000s      0.000w     15 calls

--------------------------------------------------------------------------------------
Total PK formation time             :      0.350u      0.000s      0.204w      5 calls
HF: Form core H                     :      0.000u      0.000s      0.007w      5 calls
HF: Form S/X                        :      0.000u      0.000s      0.001w      5 calls
HF: Guess                           :      0.833u      0.000s      0.517w      5 calls
| SAD Guess                         :      0.700u      0.000s      0.437w      5 calls
HF: Form G                          :      0.000u      0.000s      0.001w     20 calls
| JK: D                             :      0.000u      0.000s      0.000w     20 calls
| JK: USO2AO                        :      0.000u      0.000s      0.000w     20 calls
| JK: JK                            :      0.000u      0.000s      0.000w     20 calls
| | PK computes JK                  :      0.000u      0.000s      0.000w     20 calls
| JK: AO2USO                        :      0.000u      0.000s      0.000w     20 calls
HF: Form F                          :      0.000u      0.000s      0.000w     20 calls
HF: Form D                          :      0.017u      0.000s      0.000w     20 calls
HF: DIIS                            :      0.017u      0.000s      0.009w     15 calls
| DIISManager::add_entry            :      0.000u      0.000s      0.001w     15 calls
| DIISManager::extrapolate          :      0.000u      0.000s      0.001w     15 calls
| | bMatrix setup                   :      0.000u      0.000s      0.000w     15 calls
| | bMatrix pseudoinverse           :      0.000u      0.000s      0.000w     15 calls
| | New vector                      :      0.000u      0.000s      0.000w     15 calls
HF: Form C                          :      0.000u      0.000s      0.000w     15 calls

**************************************************************************************

Host: bigroo

Timers On : Thu Aug 22 13:25:42 2019
Timers Off: Thu Aug 22 13:25:45 2019

Wall Time:        2.70 seconds

                                                       Time (seconds)
Module                                       User      System        Wall        Calls
Total PK formation time             :      0.367u      0.000s      0.224w      5 calls
HF: Form core H                     :      0.000u      0.000s      0.005w      5 calls
HF: Form S/X                        :      0.017u      0.000s      0.001w      5 calls
HF: Guess                           :      0.833u      0.000s      0.502w      5 calls
SAD Guess                           :      0.733u      0.000s      0.437w      5 calls
HF: Form G                          :      0.000u      0.000s      0.001w     20 calls
JK: D                               :      0.000u      0.000s      0.000w     20 calls
JK: USO2AO                          :      0.000u      0.000s      0.000w     20 calls
JK: JK                              :      0.000u      0.000s      0.000w     20 calls
PK computes JK                      :      0.000u      0.000s      0.000w     20 calls
JK: AO2USO                          :      0.000u      0.000s      0.000w     20 calls
HF: Form F                          :      0.000u      0.000s      0.000w     20 calls
HF: Form D                          :      0.000u      0.000s      0.000w     20 calls
HF: DIIS                            :      0.000u      0.000s      0.009w     15 calls
DIISManager::add_entry              :      0.000u      0.000s      0.001w     15 calls
DIISManager::extrapolate            :      0.000u      0.000s      0.001w     15 calls
bMatrix setup                       :      0.000u      0.000s      0.000w     15 calls
bMatrix pseudoinverse               :      0.000u      0.000s      0.000w     15 calls
New vector                          :      0.000u      0.000s      0.000w     15 calls
HF: Form C                          :      0.000u      0.000s      0.000w     15 calls

--------------------------------------------------------------------------------------
Total PK formation time             :      0.367u      0.000s      0.224w      5 calls
HF: Form core H                     :      0.000u      0.000s      0.005w      5 calls
HF: Form S/X                        :      0.017u      0.000s      0.001w      5 calls
HF: Guess                           :      0.833u      0.000s      0.502w      5 calls
| SAD Guess                         :      0.733u      0.000s      0.437w      5 calls
HF: Form G                          :      0.000u      0.000s      0.001w     20 calls
| JK: D                             :      0.000u      0.000s      0.000w     20 calls
| JK: USO2AO                        :      0.000u      0.000s      0.000w     20 calls
| JK: JK                            :      0.000u      0.000s      0.000w     20 calls
| | PK computes JK                  :      0.000u      0.000s      0.000w     20 calls
| JK: AO2USO                        :      0.000u      0.000s      0.000w     20 calls
HF: Form F                          :      0.000u      0.000s      0.000w     20 calls
HF: Form D                          :      0.000u      0.000s      0.000w     20 calls
HF: DIIS                            :      0.000u      0.000s      0.009w     15 calls
| DIISManager::add_entry            :      0.000u      0.000s      0.001w     15 calls
| DIISManager::extrapolate          :      0.000u      0.000s      0.001w     15 calls
| | bMatrix setup                   :      0.000u      0.000s      0.000w     15 calls
| | bMatrix pseudoinverse           :      0.000u      0.000s      0.000w     15 calls
| | New vector                      :      0.000u      0.000s      0.000w     15 calls
HF: Form C                          :      0.000u      0.000s      0.000w     15 calls

**************************************************************************************

Host: bigroo

Timers On : Thu Aug 22 13:26:02 2019
Timers Off: Thu Aug 22 13:26:04 2019

Wall Time:        2.64 seconds

                                                       Time (seconds)
Module                                       User      System        Wall        Calls
Total PK formation time             :      0.333u      0.000s      0.198w      5 calls
HF: Form core H                     :      0.000u      0.000s      0.006w      5 calls
HF: Form S/X                        :      0.000u      0.000s      0.001w      5 calls
HF: Guess                           :      0.833u      0.000s      0.500w      5 calls
SAD Guess                           :      0.700u      0.000s      0.435w      5 calls
HF: Form G                          :      0.000u      0.000s      0.001w     20 calls
JK: D                               :      0.000u      0.000s      0.000w     20 calls
JK: USO2AO                          :      0.000u      0.000s      0.000w     20 calls
JK: JK                              :      0.000u      0.000s      0.000w     20 calls
PK computes JK                      :      0.000u      0.000s      0.000w     20 calls
JK: AO2USO                          :      0.000u      0.000s      0.000w     20 calls
HF: Form F                          :      0.000u      0.000s      0.000w     20 calls
HF: Form D                          :      0.000u      0.000s      0.000w     20 calls
HF: DIIS                            :      0.017u      0.000s      0.009w     15 calls
DIISManager::add_entry              :      0.000u      0.000s      0.001w     15 calls
DIISManager::extrapolate            :      0.000u      0.000s      0.001w     15 calls
bMatrix setup                       :      0.000u      0.000s      0.000w     15 calls
bMatrix pseudoinverse               :      0.000u      0.000s      0.000w     15 calls
New vector                          :      0.000u      0.000s      0.000w     15 calls
HF: Form C                          :      0.000u      0.000s      0.000w     15 calls

--------------------------------------------------------------------------------------
Total PK formation time             :      0.333u      0.000s      0.198w      5 calls
HF: Form core H                     :      0.000u      0.000s      0.006w      5 calls
HF: Form S/X                        :      0.000u      0.000s      0.001w      5 calls
HF: Guess                           :      0.833u      0.000s      0.500w      5 calls
| SAD Guess                         :      0.700u      0.000s      0.435w      5 calls
HF: Form G                          :      0.000u      0.000s      0.001w     20 calls
| JK: D                             :      0.000u      0.000s      0.000w     20 calls
| JK: USO2AO                        :      0.000u      0.000s      0.000w     20 calls
| JK: JK                            :      0.000u      0.000s      0.000w     20 calls
| | PK computes JK                  :      0.000u      0.000s      0.000w     20 calls
| JK: AO2USO                        :      0.000u      0.000s      0.000w     20 calls
HF: Form F                          :      0.000u      0.000s      0.000w     20 calls
HF: Form D                          :      0.000u      0.000s      0.000w     20 calls
HF: DIIS                            :      0.017u      0.000s      0.009w     15 calls
| DIISManager::add_entry            :      0.000u      0.000s      0.001w     15 calls
| DIISManager::extrapolate          :      0.000u      0.000s      0.001w     15 calls
| | bMatrix setup                   :      0.000u      0.000s      0.000w     15 calls
| | bMatrix pseudoinverse           :      0.000u      0.000s      0.000w     15 calls
| | New vector                      :      0.000u      0.000s      0.000w     15 calls
HF: Form C                          :      0.000u      0.000s      0.000w     15 calls

**************************************************************************************

Host: bigroo

Timers On : Thu Aug 22 13:26:40 2019
Timers Off: Thu Aug 22 13:26:43 2019

Wall Time:        2.66 seconds

                                                       Time (seconds)
Module                                       User      System        Wall        Calls
Total PK formation time             :      0.333u      0.000s      0.196w      5 calls
HF: Form core H                     :      0.000u      0.000s      0.006w      5 calls
HF: Form S/X                        :      0.000u      0.000s      0.001w      5 calls
HF: Guess                           :      0.833u      0.000s      0.512w      5 calls
SAD Guess                           :      0.733u      0.000s      0.444w      5 calls
HF: Form G                          :      0.000u      0.000s      0.001w     20 calls
JK: D                               :      0.000u      0.000s      0.000w     20 calls
JK: USO2AO                          :      0.000u      0.000s      0.000w     20 calls
JK: JK                              :      0.000u      0.000s      0.000w     20 calls
PK computes JK                      :      0.000u      0.000s      0.000w     20 calls
JK: AO2USO                          :      0.000u      0.000s      0.000w     20 calls
HF: Form F                          :      0.000u      0.000s      0.000w     20 calls
HF: Form D                          :      0.000u      0.000s      0.000w     20 calls
HF: DIIS                            :      0.000u      0.017s      0.009w     15 calls
DIISManager::add_entry              :      0.000u      0.017s      0.001w     15 calls
DIISManager::extrapolate            :      0.000u      0.000s      0.001w     15 calls
bMatrix setup                       :      0.000u      0.000s      0.000w     15 calls
bMatrix pseudoinverse               :      0.000u      0.000s      0.000w     15 calls
New vector                          :      0.000u      0.000s      0.000w     15 calls
HF: Form C                          :      0.000u      0.000s      0.000w     15 calls

--------------------------------------------------------------------------------------
Total PK formation time             :      0.333u      0.000s      0.196w      5 calls
HF: Form core H                     :      0.000u      0.000s      0.006w      5 calls
HF: Form S/X                        :      0.000u      0.000s      0.001w      5 calls
HF: Guess                           :      0.833u      0.000s      0.512w      5 calls
| SAD Guess                         :      0.733u      0.000s      0.444w      5 calls
HF: Form G                          :      0.000u      0.000s      0.001w     20 calls
| JK: D                             :      0.000u      0.000s      0.000w     20 calls
| JK: USO2AO                        :      0.000u      0.000s      0.000w     20 calls
| JK: JK                            :      0.000u      0.000s      0.000w     20 calls
| | PK computes JK                  :      0.000u      0.000s      0.000w     20 calls
| JK: AO2USO                        :      0.000u      0.000s      0.000w     20 calls
HF: Form F                          :      0.000u      0.000s      0.000w     20 calls
HF: Form D                          :      0.000u      0.000s      0.000w     20 calls
HF: DIIS                            :      0.000u      0.017s      0.009w     15 calls
| DIISManager::add_entry            :      0.000u      0.017s      0.001w     15 calls
| DIISManager::extrapolate          :      0.000u      0.000s      0.001w     15 calls
| | bMatrix setup                   :      0.000u      0.000s      0.000w     15 calls
| | bMatrix pseudoinverse           :      0.000u      0.000s      0.000w     15 calls
| | New vector                      :      0.000u      0.000s      0.000w     15 calls
HF: Form C                          :      0.000u      0.000s      0.000w     15 calls

**************************************************************************************

Host: bigroo

Timers On : Thu Aug 22 13:27:21 2019
Timers Off: Thu Aug 22 13:27:24 2019

Wall Time:        2.59 seconds

                                                       Time (seconds)
Module                                       User      System        Wall        Calls
Total PK formation time             :      0.300u      0.000s      0.180w      5 calls
HF: Form core H                     :      0.017u      0.000s      0.005w      5 calls
HF: Form S/X                        :      0.000u      0.000s      0.001w      5 calls
HF: Guess                           :      0.833u      0.033s      0.507w      5 calls
SAD Guess                           :      0.733u      0.033s      0.441w      5 calls
HF: Form G                          :      0.000u      0.000s      0.001w     20 calls
JK: D                               :      0.000u      0.000s      0.000w     20 calls
JK: USO2AO                          :      0.000u      0.000s      0.000w     20 calls
JK: JK                              :      0.000u      0.000s      0.000w     20 calls
PK computes JK                      :      0.000u      0.000s      0.000w     20 calls
JK: AO2USO                          :      0.000u      0.000s      0.000w     20 calls
HF: Form F                          :      0.000u      0.000s      0.000w     20 calls
HF: Form D                          :      0.000u      0.000s      0.000w     20 calls
HF: DIIS                            :      0.017u      0.000s      0.009w     15 calls
DIISManager::add_entry              :      0.017u      0.000s      0.001w     15 calls
DIISManager::extrapolate            :      0.000u      0.000s      0.001w     15 calls
bMatrix setup                       :      0.000u      0.000s      0.000w     15 calls
bMatrix pseudoinverse               :      0.000u      0.000s      0.000w     15 calls
New vector                          :      0.000u      0.000s      0.000w     15 calls
HF: Form C                          :      0.000u      0.000s      0.000w     15 calls

--------------------------------------------------------------------------------------
Total PK formation time             :      0.300u      0.000s      0.180w      5 calls
HF: Form core H                     :      0.017u      0.000s      0.005w      5 calls
HF: Form S/X                        :      0.000u      0.000s      0.001w      5 calls
HF: Guess                           :      0.833u      0.033s      0.507w      5 calls
| SAD Guess                         :      0.733u      0.033s      0.441w      5 calls
HF: Form G                          :      0.000u      0.000s      0.001w     20 calls
| JK: D                             :      0.000u      0.000s      0.000w     20 calls
| JK: USO2AO                        :      0.000u      0.000s      0.000w     20 calls
| JK: JK                            :      0.000u      0.000s      0.000w     20 calls
| | PK computes JK                  :      0.000u      0.000s      0.000w     20 calls
| JK: AO2USO                        :      0.000u      0.000s      0.000w     20 calls
HF: Form F                          :      0.000u      0.000s      0.000w     20 calls
HF: Form D                          :      0.000u      0.000s      0.000w     20 calls
HF: DIIS                            :      0.017u      0.000s      0.009w     15 calls
| DIISManager::add_entry            :      0.017u      0.000s      0.001w     15 calls
| DIISManager::extrapolate          :      0.000u      0.000s      0.001w     15 calls
| | bMatrix setup                   :      0.000u      0.000s      0.000w     15 calls
| | bMatrix pseudoinverse           :      0.000u      0.000s      0.000w     15 calls
| | New vector                      :      0.000u      0.000s      0.000w     15 calls
HF: Form C                          :      0.000u      0.000s      0.000w     15 calls

**************************************************************************************

Host: bigroo

Timers On : Thu Aug 22 14:00:51 2019
Timers Off: Thu Aug 22 14:00:54 2019

Wall Time:        2.61 seconds

                                                       Time (seconds)
Module                                       User      System        Wall        Calls
Total PK formation time             :      0.333u      0.000s      0.213w      5 calls
HF: Form core H                     :      0.000u      0.000s      0.005w      5 calls
HF: Form S/X                        :      0.000u      0.000s      0.001w      5 calls
HF: Guess                           :      0.833u      0.000s      0.503w      5 calls
SAD Guess                           :      0.700u      0.000s      0.437w      5 calls
HF: Form G                          :      0.000u      0.000s      0.001w     20 calls
JK: D                               :      0.000u      0.000s      0.000w     20 calls
JK: USO2AO                          :      0.000u      0.000s      0.000w     20 calls
JK: JK                              :      0.000u      0.000s      0.000w     20 calls
PK computes JK                      :      0.000u      0.000s      0.000w     20 calls
JK: AO2USO                          :      0.000u      0.000s      0.000w     20 calls
HF: Form F                          :      0.000u      0.000s      0.000w     20 calls
HF: Form D                          :      0.000u      0.000s      0.000w     20 calls
HF: DIIS                            :      0.017u      0.017s      0.009w     15 calls
DIISManager::add_entry              :      0.000u      0.000s      0.001w     15 calls
DIISManager::extrapolate            :      0.000u      0.000s      0.001w     15 calls
bMatrix setup                       :      0.000u      0.000s      0.000w     15 calls
bMatrix pseudoinverse               :      0.000u      0.000s      0.000w     15 calls
New vector                          :      0.000u      0.000s      0.000w     15 calls
HF: Form C                          :      0.000u      0.000s      0.000w     15 calls

--------------------------------------------------------------------------------------
Total PK formation time             :      0.333u      0.000s      0.213w      5 calls
HF: Form core H                     :      0.000u      0.000s      0.005w      5 calls
HF: Form S/X                        :      0.000u      0.000s      0.001w      5 calls
HF: Guess                           :      0.833u      0.000s      0.503w      5 calls
| SAD Guess                         :      0.700u      0.000s      0.437w      5 calls
HF: Form G                          :      0.000u      0.000s      0.001w     20 calls
| JK: D                             :      0.000u      0.000s      0.000w     20 calls
| JK: USO2AO                        :      0.000u      0.000s      0.000w     20 calls
| JK: JK                            :      0.000u      0.000s      0.000w     20 calls
| | PK computes JK                  :      0.000u      0.000s      0.000w     20 calls
| JK: AO2USO                        :      0.000u      0.000s      0.000w     20 calls
HF: Form F                          :      0.000u      0.000s      0.000w     20 calls
HF: Form D                          :      0.000u      0.000s      0.000w     20 calls
HF: DIIS                            :      0.017u      0.017s      0.009w     15 calls
| DIISManager::add_entry            :      0.000u      0.000s      0.001w     15 calls
| DIISManager::extrapolate          :      0.000u      0.000s      0.001w     15 calls
| | bMatrix setup                   :      0.000u      0.000s      0.000w     15 calls
| | bMatrix pseudoinverse           :      0.000u      0.000s      0.000w     15 calls
| | New vector                      :      0.000u      0.000s      0.000w     15 calls
HF: Form C                          :      0.000u      0.000s      0.000w     15 calls

**************************************************************************************

Host: bigroo

Timers On : Thu Aug 22 14:01:10 2019
Timers Off: Thu Aug 22 14:01:13 2019

Wall Time:        2.72 seconds

                                                       Time (seconds)
Module                                       User      System        Wall        Calls
Total PK formation time             :      0.367u      0.000s      0.221w      5 calls
HF: Form core H                     :      0.017u      0.000s      0.006w      5 calls
HF: Form S/X                        :      0.000u      0.000s      0.001w      5 calls
HF: Guess                           :      0.883u      0.000s      0.528w      5 calls
SAD Guess                           :      0.750u      0.000s      0.446w      5 calls
HF: Form G                          :      0.000u      0.000s      0.001w     20 calls
JK: D                               :      0.000u      0.000s      0.000w     20 calls
JK: USO2AO                          :      0.000u      0.000s      0.000w     20 calls
JK: JK                              :      0.000u      0.000s      0.000w     20 calls
PK computes JK                      :      0.000u      0.000s      0.000w     20 calls
JK: AO2USO                          :      0.000u      0.000s      0.000w     20 calls
HF: Form F                          :      0.000u      0.000s      0.000w     20 calls
HF: Form D                          :      0.000u      0.000s      0.000w     20 calls
HF: DIIS                            :      0.033u      0.000s      0.009w     15 calls
DIISManager::add_entry              :      0.017u      0.000s      0.001w     15 calls
DIISManager::extrapolate            :      0.000u      0.000s      0.001w     15 calls
bMatrix setup                       :      0.000u      0.000s      0.000w     15 calls
bMatrix pseudoinverse               :      0.000u      0.000s      0.000w     15 calls
New vector                          :      0.000u      0.000s      0.000w     15 calls
HF: Form C                          :      0.000u      0.000s      0.000w     15 calls

--------------------------------------------------------------------------------------
Total PK formation time             :      0.367u      0.000s      0.221w      5 calls
HF: Form core H                     :      0.017u      0.000s      0.006w      5 calls
HF: Form S/X                        :      0.000u      0.000s      0.001w      5 calls
HF: Guess                           :      0.883u      0.000s      0.528w      5 calls
| SAD Guess                         :      0.750u      0.000s      0.446w      5 calls
HF: Form G                          :      0.000u      0.000s      0.001w     20 calls
| JK: D                             :      0.000u      0.000s      0.000w     20 calls
| JK: USO2AO                        :      0.000u      0.000s      0.000w     20 calls
| JK: JK                            :      0.000u      0.000s      0.000w     20 calls
| | PK computes JK                  :      0.000u      0.000s      0.000w     20 calls
| JK: AO2USO                        :      0.000u      0.000s      0.000w     20 calls
HF: Form F                          :      0.000u      0.000s      0.000w     20 calls
HF: Form D                          :      0.000u      0.000s      0.000w     20 calls
HF: DIIS                            :      0.033u      0.000s      0.009w     15 calls
| DIISManager::add_entry            :      0.017u      0.000s      0.001w     15 calls
| DIISManager::extrapolate          :      0.000u      0.000s      0.001w     15 calls
| | bMatrix setup                   :      0.000u      0.000s      0.000w     15 calls
| | bMatrix pseudoinverse           :      0.000u      0.000s      0.000w     15 calls
| | New vector                      :      0.000u      0.000s      0.000w     15 calls
HF: Form C                          :      0.000u      0.000s      0.000w     15 calls

**************************************************************************************

Host: bigroo

Timers On : Thu Aug 22 14:02:05 2019
Timers Off: Thu Aug 22 14:02:08 2019

Wall Time:        2.77 seconds

                                                       Time (seconds)
Module                                       User      System        Wall        Calls
Total PK formation time             :      0.350u      0.000s      0.214w      5 calls
HF: Form core H                     :      0.017u      0.000s      0.006w      5 calls
HF: Form S/X                        :      0.000u      0.000s      0.001w      5 calls
HF: Guess                           :      0.833u      0.017s      0.516w      5 calls
SAD Guess                           :      0.733u      0.000s      0.449w      5 calls
HF: Form G                          :      0.000u      0.000s      0.001w     20 calls
JK: D                               :      0.000u      0.000s      0.000w     20 calls
JK: USO2AO                          :      0.000u      0.000s      0.000w     20 calls
JK: JK                              :      0.000u      0.000s      0.000w     20 calls
PK computes JK                      :      0.000u      0.000s      0.000w     20 calls
JK: AO2USO                          :      0.000u      0.000s      0.000w     20 calls
HF: Form F                          :      0.000u      0.000s      0.000w     20 calls
HF: Form D                          :      0.000u      0.000s      0.000w     20 calls
HF: DIIS                            :      0.017u      0.000s      0.011w     15 calls
DIISManager::add_entry              :      0.017u      0.000s      0.001w     15 calls
DIISManager::extrapolate            :      0.000u      0.000s      0.001w     15 calls
bMatrix setup                       :      0.000u      0.000s      0.000w     15 calls
bMatrix pseudoinverse               :      0.000u      0.000s      0.000w     15 calls
New vector                          :      0.000u      0.000s      0.000w     15 calls
HF: Form C                          :      0.000u      0.000s      0.000w     15 calls

--------------------------------------------------------------------------------------
Total PK formation time             :      0.350u      0.000s      0.214w      5 calls
HF: Form core H                     :      0.017u      0.000s      0.006w      5 calls
HF: Form S/X                        :      0.000u      0.000s      0.001w      5 calls
HF: Guess                           :      0.833u      0.017s      0.516w      5 calls
| SAD Guess                         :      0.733u      0.000s      0.449w      5 calls
HF: Form G                          :      0.000u      0.000s      0.001w     20 calls
| JK: D                             :      0.000u      0.000s      0.000w     20 calls
| JK: USO2AO                        :      0.000u      0.000s      0.000w     20 calls
| JK: JK                            :      0.000u      0.000s      0.000w     20 calls
| | PK computes JK                  :      0.000u      0.000s      0.000w     20 calls
| JK: AO2USO                        :      0.000u      0.000s      0.000w     20 calls
HF: Form F                          :      0.000u      0.000s      0.000w     20 calls
HF: Form D                          :      0.000u      0.000s      0.000w     20 calls
HF: DIIS                            :      0.017u      0.000s      0.011w     15 calls
| DIISManager::add_entry            :      0.017u      0.000s      0.001w     15 calls
| DIISManager::extrapolate          :      0.000u      0.000s      0.001w     15 calls
| | bMatrix setup                   :      0.000u      0.000s      0.000w     15 calls
| | bMatrix pseudoinverse           :      0.000u      0.000s      0.000w     15 calls
| | New vector                      :      0.000u      0.000s      0.000w     15 calls
HF: Form C                          :      0.000u      0.000s      0.000w     15 calls

**************************************************************************************

Host: bigroo

Timers On : Thu Aug 22 14:03:23 2019
Timers Off: Thu Aug 22 14:03:26 2019

Wall Time:        2.50 seconds

                                                       Time (seconds)
Module                                       User      System        Wall        Calls
Total PK formation time             :      0.283u      0.000s      0.170w      5 calls
HF: Form core H                     :      0.017u      0.000s      0.005w      5 calls
HF: Form S/X                        :      0.000u      0.000s      0.001w      5 calls
HF: Guess                           :      0.817u      0.000s      0.498w      5 calls
SAD Guess                           :      0.717u      0.000s      0.432w      5 calls
HF: Form G                          :      0.000u      0.000s      0.001w     20 calls
JK: D                               :      0.000u      0.000s      0.000w     20 calls
JK: USO2AO                          :      0.000u      0.000s      0.000w     20 calls
JK: JK                              :      0.000u      0.000s      0.000w     20 calls
PK computes JK                      :      0.000u      0.000s      0.000w     20 calls
JK: AO2USO                          :      0.000u      0.000s      0.000w     20 calls
HF: Form F                          :      0.000u      0.000s      0.000w     20 calls
HF: Form D                          :      0.000u      0.000s      0.000w     20 calls
HF: DIIS                            :      0.033u      0.000s      0.009w     15 calls
DIISManager::add_entry              :      0.000u      0.000s      0.001w     15 calls
DIISManager::extrapolate            :      0.000u      0.000s      0.001w     15 calls
bMatrix setup                       :      0.000u      0.000s      0.000w     15 calls
bMatrix pseudoinverse               :      0.000u      0.000s      0.000w     15 calls
New vector                          :      0.000u      0.000s      0.000w     15 calls
HF: Form C                          :      0.000u      0.000s      0.000w     15 calls

--------------------------------------------------------------------------------------
Total PK formation time             :      0.283u      0.000s      0.170w      5 calls
HF: Form core H                     :      0.017u      0.000s      0.005w      5 calls
HF: Form S/X                        :      0.000u      0.000s      0.001w      5 calls
HF: Guess                           :      0.817u      0.000s      0.498w      5 calls
| SAD Guess                         :      0.717u      0.000s      0.432w      5 calls
HF: Form G                          :      0.000u      0.000s      0.001w     20 calls
| JK: D                             :      0.000u      0.000s      0.000w     20 calls
| JK: USO2AO                        :      0.000u      0.000s      0.000w     20 calls
| JK: JK                            :      0.000u      0.000s      0.000w     20 calls
| | PK computes JK                  :      0.000u      0.000s      0.000w     20 calls
| JK: AO2USO                        :      0.000u      0.000s      0.000w     20 calls
HF: Form F                          :      0.000u      0.000s      0.000w     20 calls
HF: Form D                          :      0.000u      0.000s      0.000w     20 calls
HF: DIIS                            :      0.033u      0.000s      0.009w     15 calls
| DIISManager::add_entry            :      0.000u      0.000s      0.001w     15 calls
| DIISManager::extrapolate          :      0.000u      0.000s      0.001w     15 calls
| | bMatrix setup                   :      0.000u      0.000s      0.000w     15 calls
| | bMatrix pseudoinverse           :      0.000u      0.000s      0.000w     15 calls
| | New vector                      :      0.000u      0.000s      0.000w     15 calls
HF: Form C                          :      0.000u      0.000s      0.000w     15 calls

**************************************************************************************

Host: bigroo

Timers On : Thu Aug 22 14:04:02 2019
Timers Off: Thu Aug 22 14:04:05 2019

Wall Time:        2.56 seconds

                                                       Time (seconds)
Module                                       User      System        Wall        Calls
Total PK formation time             :      0.300u      0.000s      0.197w      5 calls
HF: Form core H                     :      0.000u      0.000s      0.006w      5 calls
HF: Form S/X                        :      0.000u      0.000s      0.001w      5 calls
HF: Guess                           :      0.833u      0.017s      0.503w      5 calls
SAD Guess                           :      0.700u      0.000s      0.438w      5 calls
HF: Form G                          :      0.000u      0.000s      0.001w     20 calls
JK: D                               :      0.000u      0.000s      0.000w     20 calls
JK: USO2AO                          :      0.000u      0.000s      0.000w     20 calls
JK: JK                              :      0.000u      0.000s      0.000w     20 calls
PK computes JK                      :      0.000u      0.000s      0.000w     20 calls
JK: AO2USO                          :      0.000u      0.000s      0.000w     20 calls
HF: Form F                          :      0.000u      0.000s      0.000w     20 calls
HF: Form D                          :      0.000u      0.000s      0.000w     20 calls
HF: DIIS                            :      0.033u      0.000s      0.009w     15 calls
DIISManager::add_entry              :      0.000u      0.000s      0.001w     15 calls
DIISManager::extrapolate            :      0.000u      0.000s      0.001w     15 calls
bMatrix setup                       :      0.000u      0.000s      0.000w     15 calls
bMatrix pseudoinverse               :      0.000u      0.000s      0.000w     15 calls
New vector                          :      0.000u      0.000s      0.000w     15 calls
HF: Form C                          :      0.000u      0.000s      0.000w     15 calls

--------------------------------------------------------------------------------------
Total PK formation time             :      0.300u      0.000s      0.197w      5 calls
HF: Form core H                     :      0.000u      0.000s      0.006w      5 calls
HF: Form S/X                        :      0.000u      0.000s      0.001w      5 calls
HF: Guess                           :      0.833u      0.017s      0.503w      5 calls
| SAD Guess                         :      0.700u      0.000s      0.438w      5 calls
HF: Form G                          :      0.000u      0.000s      0.001w     20 calls
| JK: D                             :      0.000u      0.000s      0.000w     20 calls
| JK: USO2AO                        :      0.000u      0.000s      0.000w     20 calls
| JK: JK                            :      0.000u      0.000s      0.000w     20 calls
| | PK computes JK                  :      0.000u      0.000s      0.000w     20 calls
| JK: AO2USO                        :      0.000u      0.000s      0.000w     20 calls
HF: Form F                          :      0.000u      0.000s      0.000w     20 calls
HF: Form D                          :      0.000u      0.000s      0.000w     20 calls
HF: DIIS                            :      0.033u      0.000s      0.009w     15 calls
| DIISManager::add_entry            :      0.000u      0.000s      0.001w     15 calls
| DIISManager::extrapolate          :      0.000u      0.000s      0.001w     15 calls
| | bMatrix setup                   :      0.000u      0.000s      0.000w     15 calls
| | bMatrix pseudoinverse           :      0.000u      0.000s      0.000w     15 calls
| | New vector                      :      0.000u      0.000s      0.000w     15 calls
HF: Form C                          :      0.000u      0.000s      0.000w     15 calls

**************************************************************************************

Host: bigroo

Timers On : Thu Aug 22 14:05:20 2019
Timers Off: Thu Aug 22 14:05:23 2019

Wall Time:        2.60 seconds

                                                       Time (seconds)
Module                                       User      System        Wall        Calls
Total PK formation time             :      0.300u      0.000s      0.210w      5 calls
HF: Form core H                     :      0.017u      0.000s      0.006w      5 calls
HF: Form S/X                        :      0.000u      0.000s      0.001w      5 calls
HF: Guess                           :      0.850u      0.017s      0.517w      5 calls
SAD Guess                           :      0.717u      0.000s      0.437w      5 calls
HF: Form G                          :      0.000u      0.000s      0.001w     20 calls
JK: D                               :      0.000u      0.000s      0.000w     20 calls
JK: USO2AO                          :      0.000u      0.000s      0.000w     20 calls
JK: JK                              :      0.000u      0.000s      0.000w     20 calls
PK computes JK                      :      0.000u      0.000s      0.000w     20 calls
JK: AO2USO                          :      0.000u      0.000s      0.000w     20 calls
HF: Form F                          :      0.000u      0.000s      0.000w     20 calls
HF: Form D                          :      0.000u      0.000s      0.000w     20 calls
HF: DIIS                            :      0.033u      0.000s      0.009w     15 calls
DIISManager::add_entry              :      0.000u      0.000s      0.001w     15 calls
DIISManager::extrapolate            :      0.000u      0.000s      0.001w     15 calls
bMatrix setup                       :      0.000u      0.000s      0.000w     15 calls
bMatrix pseudoinverse               :      0.000u      0.000s      0.000w     15 calls
New vector                          :      0.000u      0.000s      0.000w     15 calls
HF: Form C                          :      0.000u      0.000s      0.000w     15 calls

--------------------------------------------------------------------------------------
Total PK formation time             :      0.300u      0.000s      0.210w      5 calls
HF: Form core H                     :      0.017u      0.000s      0.006w      5 calls
HF: Form S/X                        :      0.000u      0.000s      0.001w      5 calls
HF: Guess                           :      0.850u      0.017s      0.517w      5 calls
| SAD Guess                         :      0.717u      0.000s      0.437w      5 calls
HF: Form G                          :      0.000u      0.000s      0.001w     20 calls
| JK: D                             :      0.000u      0.000s      0.000w     20 calls
| JK: USO2AO                        :      0.000u      0.000s      0.000w     20 calls
| JK: JK                            :      0.000u      0.000s      0.000w     20 calls
| | PK computes JK                  :      0.000u      0.000s      0.000w     20 calls
| JK: AO2USO                        :      0.000u      0.000s      0.000w     20 calls
HF: Form F                          :      0.000u      0.000s      0.000w     20 calls
HF: Form D                          :      0.000u      0.000s      0.000w     20 calls
HF: DIIS                            :      0.033u      0.000s      0.009w     15 calls
| DIISManager::add_entry            :      0.000u      0.000s      0.001w     15 calls
| DIISManager::extrapolate          :      0.000u      0.000s      0.001w     15 calls
| | bMatrix setup                   :      0.000u      0.000s      0.000w     15 calls
| | bMatrix pseudoinverse           :      0.000u      0.000s      0.000w     15 calls
| | New vector                      :      0.000u      0.000s      0.000w     15 calls
HF: Form C                          :      0.000u      0.000s      0.000w     15 calls

**************************************************************************************

Host: mackaroo

Timers On : Thu Aug 22 14:18:55 2019
Timers Off: Thu Aug 22 14:18:57 2019

Wall Time:        2.00 seconds

Total PK formation time:       0.13u       0.00s   0.079721w      5 calls
HF: Form H  :       0.00u       0.00s   0.025904w      5 calls
HF: Form S/X:       0.00u       0.00s   0.005014w      5 calls
HF: Guess   :       0.32u       0.02s   0.203761w      5 calls
SAD Guess   :       0.28u       0.00s   0.189881w      5 calls
JK: (A|mn)  :       0.00u       0.00s   0.001269w      5 calls
JK: (A|Q)^-1/2:       0.08u       0.00s   0.073253w      5 calls
JK: (Q|mn)  :       0.00u       0.00s   0.000019w      5 calls
JK: D       :       0.00u       0.00s   0.001457w     30 calls
JK: USO2AO  :       0.00u       0.00s   0.000223w     30 calls
JK: JK      :       0.02u       0.00s   0.001281w     30 calls
JK: J       :       0.02u       0.00s   0.000234w     10 calls
JK: J1      :       0.02u       0.00s   0.000053w     20 calls
JK: J2      :       0.00u       0.00s   0.000056w     20 calls
JK: K       :       0.00u       0.00s   0.000143w     10 calls
JK: K1      :       0.00u       0.00s   0.000035w     10 calls
JK: K2      :       0.00u       0.00s   0.000029w     10 calls
JK: AO2USO  :       0.00u       0.00s   0.000071w     30 calls
DIISManager::add_entry:       0.00u       0.02s   0.139668w     25 calls
DIISManager::extrapolate:       0.00u       0.00s   0.001249w     20 calls
DIISManager::extrapolate: bMatrix setup:       0.00u       0.00s   0.000333w     20 calls
DIISManager::extrapolate: bMatrix pseudoinverse:       0.00u       0.00s   0.000366w     20 calls
DIISManager::extrapolate: form new data:       0.00u       0.00s   0.000317w     20 calls
HF: Form G  :       0.00u       0.00s   0.002917w     20 calls
PK computes JK:       0.00u       0.00s   0.000590w     20 calls
HF: Form F  :       0.00u       0.00s   0.000060w     20 calls
HF: DIIS    :       0.00u       0.02s   0.140953w     20 calls
HF: Form C  :       0.00u       0.00s   0.000666w     20 calls
HF: Form D  :       0.00u       0.00s   0.000148w     20 calls

***********************************************************

Host: mackaroo

Timers On : Thu Aug 22 16:00:25 2019
Timers Off: Thu Aug 22 16:00:27 2019

Wall Time:        2.00 seconds

Total PK formation time:       0.12u       0.00s   0.089904w      5 calls
HF: Form H  :       0.00u       0.00s   0.021398w      5 calls
HF: Form S/X:       0.02u       0.00s   0.001117w      5 calls
HF: Guess   :       0.30u       0.02s   0.202144w      5 calls
SAD Guess   :       0.27u       0.02s   0.187951w      5 calls
JK: (A|mn)  :       0.00u       0.02s   0.001621w      5 calls
JK: (A|Q)^-1/2:       0.12u       0.00s   0.070913w      5 calls
JK: (Q|mn)  :       0.00u       0.00s   0.000034w      5 calls
JK: D       :       0.00u       0.00s   0.000381w     30 calls
JK: USO2AO  :       0.00u       0.00s   0.000275w     30 calls
JK: JK      :       0.00u       0.00s   0.001826w     30 calls
JK: J       :       0.00u       0.00s   0.000275w     10 calls
JK: J1      :       0.00u       0.00s   0.000058w     20 calls
JK: J2      :       0.00u       0.00s   0.000059w     20 calls
JK: K       :       0.00u       0.00s   0.000150w     10 calls
JK: K1      :       0.00u       0.00s   0.000040w     10 calls
JK: K2      :       0.00u       0.00s   0.000030w     10 calls
JK: AO2USO  :       0.00u       0.00s   0.000079w     30 calls
DIISManager::add_entry:       0.00u       0.00s   0.006464w     25 calls
DIISManager::extrapolate:       0.00u       0.00s   0.001771w     20 calls
DIISManager::extrapolate: bMatrix setup:       0.00u       0.00s   0.000586w     20 calls
DIISManager::extrapolate: bMatrix pseudoinverse:       0.00u       0.00s   0.000467w     20 calls
DIISManager::extrapolate: form new data:       0.00u       0.00s   0.000445w     20 calls
HF: Form G  :       0.00u       0.00s   0.002341w     20 calls
PK computes JK:       0.00u       0.00s   0.001032w     20 calls
HF: Form F  :       0.00u       0.00s   0.000073w     20 calls
HF: DIIS    :       0.00u       0.00s   0.008309w     20 calls
HF: Form C  :       0.00u       0.00s   0.001206w     20 calls
HF: Form D  :       0.00u       0.00s   0.000211w     20 calls

***********************************************************

Host: bigroo

Timers On : Sat Aug 24 15:59:00 2019
Timers Off: Sat Aug 24 15:59:03 2019

Wall Time:        2.53 seconds

                                                       Time (seconds)
Module                                       User      System        Wall        Calls
Total PK formation time             :      0.317u      0.017s      0.197w      5 calls
HF: Form core H                     :      0.000u      0.000s      0.006w      5 calls
HF: Form S/X                        :      0.000u      0.000s      0.001w      5 calls
HF: Guess                           :      0.833u      0.000s      0.506w      5 calls
SAD Guess                           :      0.700u      0.000s      0.426w      5 calls
HF: Form G                          :      0.000u      0.000s      0.001w     20 calls
JK: D                               :      0.000u      0.000s      0.000w     20 calls
JK: USO2AO                          :      0.000u      0.000s      0.000w     20 calls
JK: JK                              :      0.000u      0.000s      0.000w     20 calls
PK computes JK                      :      0.000u      0.000s      0.000w     20 calls
JK: AO2USO                          :      0.000u      0.000s      0.000w     20 calls
HF: Form F                          :      0.000u      0.000s      0.000w     20 calls
HF: Form D                          :      0.000u      0.000s      0.000w     20 calls
HF: DIIS                            :      0.000u      0.000s      0.009w     15 calls
DIISManager::add_entry              :      0.000u      0.000s      0.001w     15 calls
DIISManager::extrapolate            :      0.000u      0.000s      0.001w     15 calls
bMatrix setup                       :      0.000u      0.000s      0.000w     15 calls
bMatrix pseudoinverse               :      0.000u      0.000s      0.000w     15 calls
New vector                          :      0.000u      0.000s      0.000w     15 calls
HF: Form C                          :      0.000u      0.000s      0.000w     15 calls

--------------------------------------------------------------------------------------
Total PK formation time             :      0.317u      0.017s      0.197w      5 calls
HF: Form core H                     :      0.000u      0.000s      0.006w      5 calls
HF: Form S/X                        :      0.000u      0.000s      0.001w      5 calls
HF: Guess                           :      0.833u      0.000s      0.506w      5 calls
| SAD Guess                         :      0.700u      0.000s      0.426w      5 calls
HF: Form G                          :      0.000u      0.000s      0.001w     20 calls
| JK: D                             :      0.000u      0.000s      0.000w     20 calls
| JK: USO2AO                        :      0.000u      0.000s      0.000w     20 calls
| JK: JK                            :      0.000u      0.000s      0.000w     20 calls
| | PK computes JK                  :      0.000u      0.000s      0.000w     20 calls
| JK: AO2USO                        :      0.000u      0.000s      0.000w     20 calls
HF: Form F                          :      0.000u      0.000s      0.000w     20 calls
HF: Form D                          :      0.000u      0.000s      0.000w     20 calls
HF: DIIS                            :      0.000u      0.000s      0.009w     15 calls
| DIISManager::add_entry            :      0.000u      0.000s      0.001w     15 calls
| DIISManager::extrapolate          :      0.000u      0.000s      0.001w     15 calls
| | bMatrix setup                   :      0.000u      0.000s      0.000w     15 calls
| | bMatrix pseudoinverse           :      0.000u      0.000s      0.000w     15 calls
| | New vector                      :      0.000u      0.000s      0.000w     15 calls
HF: Form C                          :      0.000u      0.000s      0.000w     15 calls

**************************************************************************************

Host: bigroo

Timers On : Sat Aug 24 16:00:01 2019
Timers Off: Sat Aug 24 16:00:03 2019

Wall Time:        2.52 seconds

                                                       Time (seconds)
Module                                       User      System        Wall        Calls
Total PK formation time             :      0.317u      0.000s      0.187w      5 calls
HF: Form core H                     :      0.000u      0.000s      0.006w      5 calls
HF: Form S/X                        :      0.000u      0.000s      0.001w      5 calls
HF: Guess                           :      0.883u      0.017s      0.522w      5 calls
SAD Guess                           :      0.750u      0.000s      0.443w      5 calls
HF: Form G                          :      0.000u      0.000s      0.001w     20 calls
JK: D                               :      0.000u      0.000s      0.000w     20 calls
JK: USO2AO                          :      0.000u      0.000s      0.000w     20 calls
JK: JK                              :      0.000u      0.000s      0.000w     20 calls
PK computes JK                      :      0.000u      0.000s      0.000w     20 calls
JK: AO2USO                          :      0.000u      0.000s      0.000w     20 calls
HF: Form F                          :      0.017u      0.000s      0.000w     20 calls
HF: Form D                          :      0.000u      0.000s      0.000w     20 calls
HF: DIIS                            :      0.033u      0.000s      0.011w     15 calls
DIISManager::add_entry              :      0.000u      0.000s      0.002w     15 calls
DIISManager::extrapolate            :      0.000u      0.000s      0.001w     15 calls
bMatrix setup                       :      0.000u      0.000s      0.000w     15 calls
bMatrix pseudoinverse               :      0.000u      0.000s      0.000w     15 calls
New vector                          :      0.000u      0.000s      0.000w     15 calls
HF: Form C                          :      0.000u      0.000s      0.001w     15 calls

--------------------------------------------------------------------------------------
Total PK formation time             :      0.317u      0.000s      0.187w      5 calls
HF: Form core H                     :      0.000u      0.000s      0.006w      5 calls
HF: Form S/X                        :      0.000u      0.000s      0.001w      5 calls
HF: Guess                           :      0.883u      0.017s      0.522w      5 calls
| SAD Guess                         :      0.750u      0.000s      0.443w      5 calls
HF: Form G                          :      0.000u      0.000s      0.001w     20 calls
| JK: D                             :      0.000u      0.000s      0.000w     20 calls
| JK: USO2AO                        :      0.000u      0.000s      0.000w     20 calls
| JK: JK                            :      0.000u      0.000s      0.000w     20 calls
| | PK computes JK                  :      0.000u      0.000s      0.000w     20 calls
| JK: AO2USO                        :      0.000u      0.000s      0.000w     20 calls
HF: Form F                          :      0.017u      0.000s      0.000w     20 calls
HF: Form D                          :      0.000u      0.000s      0.000w     20 calls
HF: DIIS                            :      0.033u      0.000s      0.011w     15 calls
| DIISManager::add_entry            :      0.000u      0.000s      0.002w     15 calls
| DIISManager::extrapolate          :      0.000u      0.000s      0.001w     15 calls
| | bMatrix setup                   :      0.000u      0.000s      0.000w     15 calls
| | bMatrix pseudoinverse           :      0.000u      0.000s      0.000w     15 calls
| | New vector                      :      0.000u      0.000s      0.000w     15 calls
HF: Form C                          :      0.000u      0.000s      0.001w     15 calls

**************************************************************************************

Host: bigroo

Timers On : Sat Aug 24 16:02:59 2019
Timers Off: Sat Aug 24 16:03:01 2019

Wall Time:        2.62 seconds

                                                       Time (seconds)
Module                                       User      System        Wall        Calls
Total PK formation time             :      0.367u      0.000s      0.216w      5 calls
HF: Form core H                     :      0.000u      0.000s      0.006w      5 calls
HF: Form S/X                        :      0.000u      0.000s      0.001w      5 calls
HF: Guess                           :      0.833u      0.000s      0.492w      5 calls
SAD Guess                           :      0.717u      0.000s      0.428w      5 calls
HF: Form G                          :      0.000u      0.000s      0.001w     20 calls
JK: D                               :      0.000u      0.000s      0.000w     20 calls
JK: USO2AO                          :      0.000u      0.000s      0.000w     20 calls
JK: JK                              :      0.000u      0.000s      0.000w     20 calls
PK computes JK                      :      0.000u      0.000s      0.000w     20 calls
JK: AO2USO                          :      0.000u      0.000s      0.000w     20 calls
HF: Form F                          :      0.000u      0.000s      0.000w     20 calls
HF: Form D                          :      0.000u      0.000s      0.000w     20 calls
HF: DIIS                            :      0.017u      0.000s      0.009w     15 calls
DIISManager::add_entry              :      0.000u      0.000s      0.001w     15 calls
DIISManager::extrapolate            :      0.017u      0.000s      0.001w     15 calls
bMatrix setup                       :      0.000u      0.000s      0.000w     15 calls
bMatrix pseudoinverse               :      0.000u      0.000s      0.000w     15 calls
New vector                          :      0.000u      0.000s      0.000w     15 calls
HF: Form C                          :      0.000u      0.000s      0.000w     15 calls

--------------------------------------------------------------------------------------
Total PK formation time             :      0.367u      0.000s      0.216w      5 calls
HF: Form core H                     :      0.000u      0.000s      0.006w      5 calls
HF: Form S/X                        :      0.000u      0.000s      0.001w      5 calls
HF: Guess                           :      0.833u      0.000s      0.492w      5 calls
| SAD Guess                         :      0.717u      0.000s      0.428w      5 calls
HF: Form G                          :      0.000u      0.000s      0.001w     20 calls
| JK: D                             :      0.000u      0.000s      0.000w     20 calls
| JK: USO2AO                        :      0.000u      0.000s      0.000w     20 calls
| JK: JK                            :      0.000u      0.000s      0.000w     20 calls
| | PK computes JK                  :      0.000u      0.000s      0.000w     20 calls
| JK: AO2USO                        :      0.000u      0.000s      0.000w     20 calls
HF: Form F                          :      0.000u      0.000s      0.000w     20 calls
HF: Form D                          :      0.000u      0.000s      0.000w     20 calls
HF: DIIS                            :      0.017u      0.000s      0.009w     15 calls
| DIISManager::add_entry            :      0.000u      0.000s      0.001w     15 calls
| DIISManager::extrapolate          :      0.017u      0.000s      0.001w     15 calls
| | bMatrix setup                   :      0.000u      0.000s      0.000w     15 calls
| | bMatrix pseudoinverse           :      0.000u      0.000s      0.000w     15 calls
| | New vector                      :      0.000u      0.000s      0.000w     15 calls
HF: Form C                          :      0.000u      0.000s      0.000w     15 calls

**************************************************************************************

Host: bigroo

Timers On : Sat Aug 24 17:12:17 2019
Timers Off: Sat Aug 24 17:12:20 2019

Wall Time:        2.51 seconds

                                                       Time (seconds)
Module                                       User      System        Wall        Calls
Total PK formation time             :      0.283u      0.000s      0.179w      5 calls
HF: Form core H                     :      0.000u      0.000s      0.003w      5 calls
[...]
| | New vector                      :      0.000u      0.000s      0.000w      7 calls
HF: Form C                          :      0.000u      0.000s      0.000w      7 calls

**************************************************************************************

Host: mackaroo

Timers On : Fri Jul 31 17:13:07 2020
Timers Off: Fri Jul 31 17:13:10 2020

Wall Time:        2.70 seconds

                                                       Time (seconds)
Module                                       User      System        Wall        Calls
Total PK formation time             :      0.117u      0.000s      0.065w      5 calls
HF: Form core H                     :      0.000u      0.000s      0.024w      5 calls
HF: Form S/X                        :      0.000u      0.000s      0.002w      5 calls
HF: Guess                           :      0.283u      0.033s      0.182w      5 calls
SAD Guess                           :      0.250u      0.033s      0.171w      5 calls
HF: Form G                          :      0.000u      0.000s      0.001w     20 calls
JK: D                               :      0.000u      0.000s      0.000w     20 calls
JK: USO2AO                          :      0.000u      0.000s      0.000w     20 calls
JK: JK                              :      0.000u      0.000s      0.000w     20 calls
PK computes JK                      :      0.000u      0.000s      0.000w     20 calls
JK: AO2USO                          :      0.000u      0.000s      0.000w     20 calls
HF: Form F                          :      0.000u      0.000s      0.000w     20 calls
HF: Form D                          :      0.000u      0.000s      0.000w     20 calls
HF: DIIS                            :      0.000u      0.000s      0.032w     15 calls
DIISManager::add_entry              :      0.000u      0.000s      0.023w     15 calls
DIISManager::extrapolate            :      0.000u      0.000s      0.002w     15 calls
bMatrix setup                       :      0.000u      0.000s      0.000w     15 calls
bMatrix pseudoinverse               :      0.000u      0.000s      0.001w     15 calls
New vector                          :      0.000u      0.000s      0.000w     15 calls
HF: Form C                          :      0.000u      0.000s      0.001w     15 calls

--------------------------------------------------------------------------------------
Total PK formation time             :      0.117u      0.000s      0.065w      5 calls
HF: Form core H                     :      0.000u      0.000s      0.024w      5 calls
HF: Form S/X                        :      0.000u      0.000s      0.002w      5 calls
HF: Guess                           :      0.283u      0.033s      0.182w      5 calls
| SAD Guess                         :      0.250u      0.033s      0.171w      5 calls
HF: Form G                          :      0.000u      0.000s      0.001w     20 calls
| JK: D                             :      0.000u      0.000s      0.000w     20 calls
| JK: USO2AO                        :      0.000u      0.000s      0.000w     20 calls
| JK: JK                            :      0.000u      0.000s      0.000w     20 calls
| | PK computes JK                  :      0.000u      0.000s      0.000w     20 calls
| JK: AO2USO                        :      0.000u      0.000s      0.000w     20 calls
HF: Form F                          :      0.000u      0.000s      0.000w     20 calls
HF: Form D                          :      0.000u      0.000s      0.000w     20 calls
HF: DIIS                            :      0.000u      0.000s      0.032w     15 calls
| DIISManager::add_entry            :      0.000u      0.000s      0.023w     15 calls
| DIISManager::extrapolate          :      0.000u      0.000s      0.002w     15 calls
| | bMatrix setup                   :      0.000u      0.000s      0.000w     15 calls
| | bMatrix pseudoinverse           :      0.000u      0.000s      0.001w     15 calls
| | New vector                      :      0.000u      0.000s      0.000w     15 calls
HF: Form C                          :      0.000u      0.000s      0.001w     15 calls

**************************************************************************************

Host: mackaroo

Timers On : Fri Jul 31 17:13:17 2020
Timers Off: Fri Jul 31 17:13:19 2020

Wall Time:        1.87 seconds

                                                       Time (seconds)
Module                                       User      System        Wall        Calls
Total PK formation time             :      0.033u      0.000s      0.020w      1 calls
HF: Form core H                     :      0.000u      0.000s      0.001w      1 calls
HF: Form S/X                        :      0.000u      0.000s      0.000w      1 calls
HF: Guess                           :      0.117u      0.017s      0.089w      1 calls
SAD Guess                           :      0.117u      0.017s      0.087w      1 calls
HF: Form G                          :      0.000u      0.000s      0.000w      8 calls
JK: D                               :      0.000u      0.000s      0.000w      8 calls
JK: USO2AO                          :      0.000u      0.000s      0.000w      8 calls
JK: JK                              :      0.000u      0.000s      0.000w      8 calls
PK computes JK                      :      0.000u      0.000s      0.000w      8 calls
JK: AO2USO                          :      0.000u      0.000s      0.000w      8 calls
HF: Form F                          :      0.000u      0.000s      0.000w      8 calls
HF: Form D                          :      0.000u      0.000s      0.000w      8 calls
HF: DIIS                            :      0.000u      0.000s      0.005w      7 calls
DIISManager::add_entry              :      0.000u      0.000s      0.001w      7 calls
DIISManager::extrapolate            :      0.000u      0.000s      0.001w      7 calls
bMatrix setup                       :      0.000u      0.000s      0.000w      7 calls
bMatrix pseudoinverse               :      0.000u      0.000s      0.000w      7 calls
New vector                          :      0.000u      0.000s      0.000w      7 calls
HF: Form C                          :      0.000u      0.000s      0.000w      7 calls

--------------------------------------------------------------------------------------
Total PK formation time             :      0.033u      0.000s      0.020w      1 calls
HF: Form core H                     :      0.000u      0.000s      0.001w      1 calls
HF: Form S/X                        :      0.000u      0.000s      0.000w      1 calls
HF: Guess                           :      0.117u      0.017s      0.089w      1 calls
| SAD Guess                         :      0.117u      0.017s      0.087w      1 calls
HF: Form G                          :      0.000u      0.000s      0.000w      8 calls
| JK: D                             :      0.000u      0.000s      0.000w      8 calls
| JK: USO2AO                        :      0.000u      0.000s      0.000w      8 calls
| JK: JK                            :      0.000u      0.000s      0.000w      8 calls
| | PK computes JK                  :      0.000u      0.000s      0.000w      8 calls
| JK: AO2USO                        :      0.000u      0.000s      0.000w      8 calls
HF: Form F                          :      0.000u      0.000s      0.000w      8 calls
HF: Form D                          :      0.000u      0.000s      0.000w      8 calls
HF: DIIS                            :      0.000u      0.000s      0.005w      7 calls
| DIISManager::add_entry            :      0.000u      0.000s      0.001w      7 calls
| DIISManager::extrapolate          :      0.000u      0.000s      0.001w      7 calls
| | bMatrix setup                   :      0.000u      0.000s      0.000w      7 calls
| | bMatrix pseudoinverse           :      0.000u      0.000s      0.000w      7 calls
| | New vector                      :      0.000u      0.000s      0.000w      7 calls
HF: Form C                          :      0.000u      0.000s      0.000w      7 calls

**************************************************************************************

Host: mackaroo

Timers On : Fri Aug 21 13:32:32 2020
Timers Off: Fri Aug 21 13:32:39 2020

Wall Time:        7.74 seconds

                                                       Time (seconds)
Module                                       User      System        Wall        Calls
Total PK formation time             :      0.033u      0.000s      0.020w      1 calls
HF: Form core H                     :      0.000u      0.000s      0.001w      1 calls
HF: Form S/X                        :      0.000u      0.000s      0.000w      1 calls
HF: Guess                           :      0.133u      0.000s      0.099w      1 calls
SAD Guess                           :      0.133u      0.000s      0.097w      1 calls
HF: Form G                          :      0.000u      0.000s      0.000w      8 calls
JK: D                               :      0.000u      0.000s      0.000w      8 calls
JK: USO2AO                          :      0.000u      0.000s      0.000w      8 calls
JK: JK                              :      0.000u      0.000s      0.000w      8 calls
PK computes JK                      :      0.000u      0.000s      0.000w      8 calls
JK: AO2USO                          :      0.000u      0.000s      0.000w      8 calls
HF: Form F                          :      0.000u      0.000s      0.000w      8 calls
HF: Form D                          :      0.000u      0.000s      0.000w      8 calls
HF: DIIS                            :      0.000u      0.017s      0.005w      7 calls
DIISManager::add_entry              :      0.000u      0.017s      0.001w      7 calls
DIISManager::extrapolate            :      0.000u      0.000s      0.001w      7 calls
bMatrix setup                       :      0.000u      0.000s      0.000w      7 calls
bMatrix pseudoinverse               :      0.000u      0.000s      0.000w      7 calls
New vector                          :      0.000u      0.000s      0.000w      7 calls
HF: Form C                          :      0.000u      0.000s      0.000w      7 calls

--------------------------------------------------------------------------------------
Total PK formation time             :      0.033u      0.000s      0.020w      1 calls
HF: Form core H                     :      0.000u      0.000s      0.001w      1 calls
HF: Form S/X                        :      0.000u      0.000s      0.000w      1 calls
HF: Guess                           :      0.133u      0.000s      0.099w      1 calls
| SAD Guess                         :      0.133u      0.000s      0.097w      1 calls
HF: Form G                          :      0.000u      0.000s      0.000w      8 calls
| JK: D                             :      0.000u      0.000s      0.000w      8 calls
| JK: USO2AO                        :      0.000u      0.000s      0.000w      8 calls
| JK: JK                            :      0.000u      0.000s      0.000w      8 calls
| | PK computes JK                  :      0.000u      0.000s      0.000w      8 calls
| JK: AO2USO                        :      0.000u      0.000s      0.000w      8 calls
HF: Form F                          :      0.000u      0.000s      0.000w      8 calls
HF: Form D                          :      0.000u      0.000s      0.000w      8 calls
HF: DIIS                            :      0.000u      0.017s      0.005w      7 calls
| DIISManager::add_entry            :      0.000u      0.017s      0.001w      7 calls
| DIISManager::extrapolate          :      0.000u      0.000s      0.001w      7 calls
| | bMatrix setup                   :      0.000u      0.000s      0.000w      7 calls
| | bMatrix pseudoinverse           :      0.000u      0.000s      0.000w      7 calls
| | New vector                      :      0.000u      0.000s      0.000w      7 calls
HF: Form C                          :      0.000u      0.000s      0.000w      7 calls

**************************************************************************************

Host: Mackaroo

Timers On : Tue Jul 27 12:17:10 2021
Timers Off: Tue Jul 27 12:17:25 2021

Wall Time:       15.22 seconds

                                                       Time (seconds)
Module                                       User      System        Wall        Calls
Total PK formation time             :      0.033u      0.000s      0.020w      1 calls
HF: Form core H                     :      0.000u      0.000s      0.002w      1 calls
HF: Form S/X                        :      0.000u      0.000s      0.001w      1 calls
HF: Guess                           :      0.117u      0.017s      0.076w      1 calls
SAD Guess                           :      0.117u      0.017s      0.074w      1 calls
HF: Form G                          :      0.000u      0.000s      0.000w      8 calls
JK: D                               :      0.000u      0.000s      0.000w      8 calls
JK: USO2AO                          :      0.000u      0.000s      0.000w      8 calls
JK: JK                              :      0.000u      0.000s      0.000w      8 calls
PK computes JK                      :      0.000u      0.000s      0.000w      8 calls
JK: AO2USO                          :      0.000u      0.000s      0.000w      8 calls
HF: Form F                          :      0.000u      0.000s      0.000w      8 calls
HF: Form D                          :      0.000u      0.000s      0.000w      8 calls
HF: DIIS                            :      0.017u      0.000s      0.005w      7 calls
DIISManager::add_entry              :      0.000u      0.000s      0.001w      7 calls
DIISManager::extrapolate            :      0.017u      0.000s      0.000w      7 calls
bMatrix setup                       :      0.000u      0.000s      0.000w      7 calls
bMatrix pseudoinverse               :      0.000u      0.000s      0.000w      7 calls
New vector                          :      0.000u      0.000s      0.000w      7 calls
HF: Form C                          :      0.000u      0.000s      0.000w      7 calls

--------------------------------------------------------------------------------------
Total PK formation time             :      0.033u      0.000s      0.020w      1 calls
HF: Form core H                     :      0.000u      0.000s      0.002w      1 calls
HF: Form S/X                        :      0.000u      0.000s      0.001w      1 calls
HF: Guess                           :      0.117u      0.017s      0.076w      1 calls
| SAD Guess                         :      0.117u      0.017s      0.074w      1 calls
HF: Form G                          :      0.000u      0.000s      0.000w      8 calls
| JK: D                             :      0.000u      0.000s      0.000w      8 calls
| JK: USO2AO                        :      0.000u      0.000s      0.000w      8 calls
| JK: JK                            :      0.000u      0.000s      0.000w      8 calls
| | PK computes JK                  :      0.000u      0.000s      0.000w      8 calls
| JK: AO2USO                        :      0.000u      0.000s      0.000w      8 calls
HF: Form F                          :      0.000u      0.000s      0.000w      8 calls
HF: Form D                          :      0.000u      0.000s      0.000w      8 calls
HF: DIIS                            :      0.017u      0.000s      0.005w      7 calls
| DIISManager::add_entry            :      0.000u      0.000s      0.001w      7 calls
| DIISManager::extrapolate          :      0.017u      0.000s      0.000w      7 calls
| | bMatrix setup                   :      0.000u      0.000s      0.000w      7 calls
| | bMatrix pseudoinverse           :      0.000u      0.000s      0.000w      7 calls
| | New vector                      :      0.000u      0.000s      0.000w      7 calls
HF: Form C                          :      0.000u      0.000s      0.000w      7 calls

**************************************************************************************

Host: Mackaroo

Timers On : Tue Sep 21 18:50:35 2021
Timers Off: Tue Sep 21 18:50:43 2021

Wall Time:        8.63 seconds

                                                       Time (seconds)
Module                                       User      System        Wall        Calls
Total PK formation time             :      0.083u      0.000s      0.062w      5 calls
HF: Form core H                     :      0.017u      0.017s      0.008w      5 calls
HF: Form S/X                        :      0.000u      0.000s      0.001w      5 calls
HF: Guess                           :      0.300u      0.000s      0.163w      5 calls
SAD Guess                           :      0.233u      0.000s      0.153w      5 calls
HF: Form G                          :      0.000u      0.000s      0.001w     20 calls
JK: D                               :      0.000u      0.000s      0.000w     20 calls
JK: USO2AO                          :      0.000u      0.000s      0.000w     20 calls
JK: JK                              :      0.000u      0.000s      0.000w     20 calls
PK computes JK                      :      0.000u      0.000s      0.000w     20 calls
JK: AO2USO                          :      0.000u      0.000s      0.000w     20 calls
HF: Form F                          :      0.000u      0.000s      0.000w     20 calls
HF: Form D                          :      0.000u      0.000s      0.000w     20 calls
HF: DIIS                            :      0.000u      0.017s      0.010w     15 calls
DIISManager::add_entry              :      0.000u      0.017s      0.003w     15 calls
DIISManager::extrapolate            :      0.000u      0.000s      0.001w     15 calls
bMatrix setup                       :      0.000u      0.000s      0.000w     15 calls
bMatrix pseudoinverse               :      0.000u      0.000s      0.000w     15 calls
New vector                          :      0.000u      0.000s      0.000w     15 calls
HF: Form C                          :      0.000u      0.000s      0.000w     15 calls

--------------------------------------------------------------------------------------
Total PK formation time             :      0.083u      0.000s      0.062w      5 calls
HF: Form core H                     :      0.017u      0.017s      0.008w      5 calls
HF: Form S/X                        :      0.000u      0.000s      0.001w      5 calls
HF: Guess                           :      0.300u      0.000s      0.163w      5 calls
| SAD Guess                         :      0.233u      0.000s      0.153w      5 calls
HF: Form G                          :      0.000u      0.000s      0.001w     20 calls
| JK: D                             :      0.000u      0.000s      0.000w     20 calls
| JK: USO2AO                        :      0.000u      0.000s      0.000w     20 calls
| JK: JK                            :      0.000u      0.000s      0.000w     20 calls
| | PK computes JK                  :      0.000u      0.000s      0.000w     20 calls
| JK: AO2USO                        :      0.000u      0.000s      0.000w     20 calls
HF: Form F                          :      0.000u      0.000s      0.000w     20 calls
HF: Form D                          :      0.000u      0.000s      0.000w     20 calls
HF: DIIS                            :      0.000u      0.017s      0.010w     15 calls
| DIISManager::add_entry            :      0.000u      0.017s      0.003w     15 calls
| DIISManager::extrapolate          :      0.000u      0.000s      0.001w     15 calls
| | bMatrix setup                   :      0.000u      0.000s      0.000w     15 calls
| | bMatrix pseudoinverse           :      0.000u      0.000s      0.000w     15 calls
| | New vector                      :      0.000u      0.000s      0.000w     15 calls
HF: Form C                          :      0.000u      0.000s      0.000w     15 calls

**************************************************************************************
